<?xml version="1.0" encoding="UTF-8"?>

<!-- generated on 2025-04-03 17:50:38 by Eclipse SUMO GUI Version 1.19.0
<configuration xmlns:xsi="http://www.w3.org/2001/XMLSchema-instance" xsi:noNamespaceSchemaLocation="http://sumo.dlr.de/xsd/sumoConfiguration.xsd">

    <input>
        <net-file value="D:\Copy\OneDrive\桌面\my_sumo_project\config\../networks/villeurbanne.net.xml"/>
        <route-files value="D:\Copy\OneDrive\桌面\my_sumo_project\config\dynamic_routes.rou.xml"/>
        <additional-files value="D:\Copy\OneDrive\桌面\my_sumo_project\config\vTypes.add.xml"/>
    </input>

    <output>
        <emission-output value="D:\Copy\OneDrive\桌面\my_sumo_project\config\../outputs/emissions.xml"/>
        <fcd-output value="D:\Copy\OneDrive\桌面\my_sumo_project\config\../outputs/fcd.xml"/>
    </output>

    <time>
        <begin value="0"/>
        <end value="86400"/>
    </time>

    <processing>
        <time-to-teleport value="-1"/>
    </processing>

</configuration>
-->

<emission-export xmlns:xsi="http://www.w3.org/2001/XMLSchema-instance" xsi:noNamespaceSchemaLocation="http://sumo.dlr.de/xsd/emission_file.xsd">
</emission-export>
